[
  {
    "AtomicNumber":"1",
    "Symbol":"H",
    "Name":"Hydrogen",
    "AtomicMass":"1.0080",
    "CPKHexColor":"FFFFFF",
    "ElectronConfiguration":"1s1",
    "Electronegativity":"2.2",
    "AtomicRadius":"120",
    "IonizationEnergy":"13.598",
    "ElectronAffinity":"0.754",
    "OxidationStates":"+1, -1",
    "StandardState":"Gas",
    "MeltingPoint":"13.81",
    "BoilingPoint":"20.28",
    "Density":"0.00008988",
    "GroupBlock":"Nonmetal",
    "YearDiscovered":"1766"
  },
  {
    "AtomicNumber":"2",
    "Symbol":"He",
    "Name":"Helium",
    "AtomicMass":"4.00260",
    "CPKHexColor":"D9FFFF",
    "ElectronConfiguration":"1s2",
    "Electronegativity":"",
    "AtomicRadius":"140",
    "IonizationEnergy":"24.587",
    "ElectronAffinity":"",
    "OxidationStates":"0",
    "StandardState":"Gas",
    "MeltingPoint":"0.95",
    "BoilingPoint":"4.22",
    "Density":"0.0001785",
    "GroupBlock":"Noble gas",
    "YearDiscovered":"1868"
  },
  {
    "AtomicNumber":"3",
    "Symbol":"Li",
    "Name":"Lithium",
    "AtomicMass":"7.0",
    "CPKHexColor":"CC80FF",
    "ElectronConfiguration":"[He]2s1",
    "Electronegativity":"0.98",
    "AtomicRadius":"182",
    "IonizationEnergy":"5.392",
    "ElectronAffinity":"0.618",
    "OxidationStates":"+1",
    "StandardState":"Solid",
    "MeltingPoint":"453.65",
    "BoilingPoint":"1615",
    "Density":"0.534",
    "GroupBlock":"Alkali metal",
    "YearDiscovered":"1817"
  },
  {
    "AtomicNumber":"4",
    "Symbol":"Be",
    "Name":"Beryllium",
    "AtomicMass":"9.012183",
    "CPKHexColor":"C2FF00",
    "ElectronConfiguration":"[He]2s2",
    "Electronegativity":"1.57",
    "AtomicRadius":"153",
    "IonizationEnergy":"9.323",
    "ElectronAffinity":"",
    "OxidationStates":"+2",
    "StandardState":"Solid",
    "MeltingPoint":"1560",
    "BoilingPoint":"2744",
    "Density":"1.85",
    "GroupBlock":"Alkaline earth metal",
    "YearDiscovered":"1798"
  },
  {
    "AtomicNumber":"5",
    "Symbol":"B",
    "Name":"Boron",
    "AtomicMass":"10.81",
    "CPKHexColor":"FFB5B5",
    "ElectronConfiguration":"[He]2s2 2p1",
    "Electronegativity":"2.04",
    "AtomicRadius":"192",
    "IonizationEnergy":"8.298",
    "ElectronAffinity":"0.277",
    "OxidationStates":"+3",
    "StandardState":"Solid",
    "MeltingPoint":"2348",
    "BoilingPoint":"4273",
    "Density":"2.37",
    "GroupBlock":"Metalloid",
    "YearDiscovered":"1808"
  },
  {
    "AtomicNumber":"6",
    "Symbol":"C",
    "Name":"Carbon",
    "AtomicMass":"12.011",
    "CPKHexColor":"909090",
    "ElectronConfiguration":"[He]2s2 2p2",
    "Electronegativity":"2.55",
    "AtomicRadius":"170",
    "IonizationEnergy":"11.260",
    "ElectronAffinity":"1.263",
    "OxidationStates":"+4, +2, -4",
    "StandardState":"Solid",
    "MeltingPoint":"3823",
    "BoilingPoint":"4098",
    "Density":"2.2670",
    "GroupBlock":"Nonmetal",
    "YearDiscovered":"Ancient"
  },
  {
    "AtomicNumber":"7",
    "Symbol":"N",
    "Name":"Nitrogen",
    "AtomicMass":"14.007",
    "CPKHexColor":"3050F8",
    "ElectronConfiguration":"[He] 2s2 2p3",
    "Electronegativity":"3.04",
    "AtomicRadius":"155",
    "IonizationEnergy":"14.534",
    "ElectronAffinity":"",
    "OxidationStates":"+5, +4, +3, +2, +1, -1, -2, -3",
    "StandardState":"Gas",
    "MeltingPoint":"63.15",
    "BoilingPoint":"77.36",
    "Density":"0.0012506",
    "GroupBlock":"Nonmetal",
    "YearDiscovered":"1772"
  },
  {
    "AtomicNumber":"8",
    "Symbol":"O",
    "Name":"Oxygen",
    "AtomicMass":"15.999",
    "CPKHexColor":"FF0D0D",
    "ElectronConfiguration":"[He]2s2 2p4",
    "Electronegativity":"3.44",
    "AtomicRadius":"152",
    "IonizationEnergy":"13.618",
    "ElectronAffinity":"1.461",
    "OxidationStates":"-2",
    "StandardState":"Gas",
    "MeltingPoint":"54.36",
    "BoilingPoint":"90.2",
    "Density":"0.001429",
    "GroupBlock":"Nonmetal",
    "YearDiscovered":"1774"
  },
  {
    "AtomicNumber":"9",
    "Symbol":"F",
    "Name":"Fluorine",
    "AtomicMass":"18.99840316",
    "CPKHexColor":"90E050",
    "ElectronConfiguration":"[He]2s2 2p5",
    "Electronegativity":"3.98",
    "AtomicRadius":"135",
    "IonizationEnergy":"17.423",
    "ElectronAffinity":"3.339",
    "OxidationStates":"-1",
    "StandardState":"Gas",
    "MeltingPoint":"53.53",
    "BoilingPoint":"85.03",
    "Density":"0.001696",
    "GroupBlock":"Halogen",
    "YearDiscovered":"1670"
  },
  {
    "AtomicNumber":"10",
    "Symbol":"Ne",
    "Name":"Neon",
    "AtomicMass":"20.180",
    "CPKHexColor":"B3E3F5",
    "ElectronConfiguration":"[He]2s2 2p6",
    "Electronegativity":"",
    "AtomicRadius":"154",
    "IonizationEnergy":"21.565",
    "ElectronAffinity":"",
    "OxidationStates":"0",
    "StandardState":"Gas",
    "MeltingPoint":"24.56",
    "BoilingPoint":"27.07",
    "Density":"0.0008999",
    "GroupBlock":"Noble gas",
    "YearDiscovered":"1898"
  },
  {
    "AtomicNumber":"11",
    "Symbol":"Na",
    "Name":"Sodium",
    "AtomicMass":"22.9897693",
    "CPKHexColor":"AB5CF2",
    "ElectronConfiguration":"[Ne]3s1",
    "Electronegativity":"0.93",
    "AtomicRadius":"227",
    "IonizationEnergy":"5.139",
    "ElectronAffinity":"0.548",
    "OxidationStates":"+1",
    "StandardState":"Solid",
    "MeltingPoint":"370.95",
    "BoilingPoint":"1156",
    "Density":"0.97",
    "GroupBlock":"Alkali metal",
    "YearDiscovered":"1807"
  },
  {
    "AtomicNumber":"12",
    "Symbol":"Mg",
    "Name":"Magnesium",
    "AtomicMass":"24.305",
    "CPKHexColor":"8AFF00",
    "ElectronConfiguration":"[Ne]3s2",
    "Electronegativity":"1.31",
    "AtomicRadius":"173",
    "IonizationEnergy":"7.646",
    "ElectronAffinity":"",
    "OxidationStates":"+2",
    "StandardState":"Solid",
    "MeltingPoint":"923",
    "BoilingPoint":"1363",
    "Density":"1.74",
    "GroupBlock":"Alkaline earth metal",
    "YearDiscovered":"1808"
  },
  {
    "AtomicNumber":"13",
    "Symbol":"Al",
    "Name":"Aluminum",
    "AtomicMass":"26.981538",
    "CPKHexColor":"BFA6A6",
    "ElectronConfiguration":"[Ne]3s2 3p1",
    "Electronegativity":"1.61",
    "AtomicRadius":"184",
    "IonizationEnergy":"5.986",
    "ElectronAffinity":"0.441",
    "OxidationStates":"+3",
    "StandardState":"Solid",
    "MeltingPoint":"933.437",
    "BoilingPoint":"2792",
    "Density":"2.70",
    "GroupBlock":"Post-transition metal",
    "YearDiscovered":"Ancient"
  },
  {
    "AtomicNumber":"14",
    "Symbol":"Si",
    "Name":"Silicon",
    "AtomicMass":"28.085",
    "CPKHexColor":"F0C8A0",
    "ElectronConfiguration":"[Ne]3s2 3p2",
    "Electronegativity":"1.9",
    "AtomicRadius":"210",
    "IonizationEnergy":"8.152",
    "ElectronAffinity":"1.385",
    "OxidationStates":"+4, +2, -4",
    "StandardState":"Solid",
    "MeltingPoint":"1687",
    "BoilingPoint":"3538",
    "Density":"2.3296",
    "GroupBlock":"Metalloid",
    "YearDiscovered":"1854"
  },
  {
    "AtomicNumber":"15",
    "Symbol":"P",
    "Name":"Phosphorus",
    "AtomicMass":"30.97376200",
    "CPKHexColor":"FF8000",
    "ElectronConfiguration":"[Ne]3s2 3p3",
    "Electronegativity":"2.19",
    "AtomicRadius":"180",
    "IonizationEnergy":"10.487",
    "ElectronAffinity":"0.746",
    "OxidationStates":"+5, +3, -3",
    "StandardState":"Solid",
    "MeltingPoint":"317.3",
    "BoilingPoint":"553.65",
    "Density":"1.82",
    "GroupBlock":"Nonmetal",
    "YearDiscovered":"1669"
  },
  {
    "AtomicNumber":"16",
    "Symbol":"S",
    "Name":"Sulfur",
    "AtomicMass":"32.07",
    "CPKHexColor":"FFFF30",
    "ElectronConfiguration":"[Ne]3s2 3p4",
    "Electronegativity":"2.58",
    "AtomicRadius":"180",
    "IonizationEnergy":"10.360",
    "ElectronAffinity":"2.077",
    "OxidationStates":"+6, +4, -2",
    "StandardState":"Solid",
    "MeltingPoint":"388.36",
    "BoilingPoint":"717.75",
    "Density":"2.067",
    "GroupBlock":"Nonmetal",
    "YearDiscovered":"Ancient"
  },
  {
    "AtomicNumber":"17",
    "Symbol":"Cl",
    "Name":"Chlorine",
    "AtomicMass":"35.45",
    "CPKHexColor":"1FF01F",
    "ElectronConfiguration":"[Ne]3s2 3p5",
    "Electronegativity":"3.16",
    "AtomicRadius":"175",
    "IonizationEnergy":"12.968",
    "ElectronAffinity":"3.617",
    "OxidationStates":"+7, +5, +1, -1",
    "StandardState":"Gas",
    "MeltingPoint":"171.65",
    "BoilingPoint":"239.11",
    "Density":"0.003214",
    "GroupBlock":"Halogen",
    "YearDiscovered":"1774"
  },
  {
    "AtomicNumber":"18",
    "Symbol":"Ar",
    "Name":"Argon",
    "AtomicMass":"39.9",
    "CPKHexColor":"80D1E3",
    "ElectronConfiguration":"[Ne]3s2 3p6",
    "Electronegativity":"",
    "AtomicRadius":"188",
    "IonizationEnergy":"15.760",
    "ElectronAffinity":"",
    "OxidationStates":"0",
    "StandardState":"Gas",
    "MeltingPoint":"83.8",
    "BoilingPoint":"87.3",
    "Density":"0.0017837",
    "GroupBlock":"Noble gas",
    "YearDiscovered":"1894"
  },
  {
    "AtomicNumber":"19",
    "Symbol":"K",
    "Name":"Potassium",
    "AtomicMass":"39.0983",
    "CPKHexColor":"8F40D4",
    "ElectronConfiguration":"[Ar]4s1",
    "Electronegativity":"0.82",
    "AtomicRadius":"275",
    "IonizationEnergy":"4.341",
    "ElectronAffinity":"0.501",
    "OxidationStates":"+1",
    "StandardState":"Solid",
    "MeltingPoint":"336.53",
    "BoilingPoint":"1032",
    "Density":"0.89",
    "GroupBlock":"Alkali metal",
    "YearDiscovered":"1807"
  },
  {
    "AtomicNumber":"20",
    "Symbol":"Ca",
    "Name":"Calcium",
    "AtomicMass":"40.08",
    "CPKHexColor":"3DFF00",
    "ElectronConfiguration":"[Ar]4s2",
    "Electronegativity":"1",
    "AtomicRadius":"231",
    "IonizationEnergy":"6.113",
    "ElectronAffinity":"",
    "OxidationStates":"+2",
    "StandardState":"Solid",
    "MeltingPoint":"1115",
    "BoilingPoint":"1757",
    "Density":"1.54",
    "GroupBlock":"Alkaline earth metal",
    "YearDiscovered":"Ancient"
  },
  {
  },
  {
  },
  {
  },
  {
  },
  {
  },
  {
  },
  {
  },
  {
  },
  {
  },
  {
  },
  {
  },
  {
  },
  {
  },
  {
  },
  {
  },
  {
  },
  {
  },
  {
  },
  {
  },
  {
  },
  {
  },
  {
  },
  {
  },
  {
  },
  {
  },
  {
  },
  {
  },
  {
  },
  {
  },
  {
  },
  {
  },
  {
  },
  {
  },
  {
  },
  {
  },
  {
  },
  {
  },
  {
  },
  {
  },
  {
  },
  {
  },
  {
  },
  {
  },
  {
  },
  {
  },
  {
  },
  {
  },
  {
  },
  {
  },
  {
  },
  {
  },
  {
  },
  {
  },
  {
  },
  {
  },
  {
  },
  {
  },
  {
  },
  {
  },
  {
  },
  {
  },
  {
  },
  {
  },
  {
  },
  {
  },
  {
  },
  {
  },
  {
  },
  {
  },
  {
  },
  {
  },
  {
  },
  {
  },
  {
  },
  {
  },
  {
  },
  {
  },
  {
  },
  {
  },
  {
  },
  {
  },
  {
  },
  {
  },
  {
  },
  {
  },
  {
  },
  {
  },
  {
  },
  {
  },
  {
  },
  {
  },
  {
  },
  {
  },
  {
  },
  {
  },
  {
  },
  {
  },
  {
  }
]
